TITLE = "SU2 Simulation"
VARIABLES = "Iteration","TotalPressureLoss_1","KineticEnergyLoss_1","EntropyGen_1","EulerianWork_1","PressureRatio_1","FlowAngleIn_1","FlowAngleOut_1","AbsFlowAngleIn_1","AbsFlowAngleOut_1","MassFlowIn_1","MassFlowOut_1","MachIn_1","MachOut_1","TotalEfficiency_1","TotalStaticEfficiency_1","Res_Flow[0]","Res_Flow[1]","Res_Flow[2]","Res_Flow[3]","Res_Flow[4]","Res_Turb[0]","Linear_Solver_Iterations","CFL_Number","Time(min)"
ZONE T= "Convergence history"
           0, 0.8589227704, 0.6431436959, 0.0000552932, 990.7075965821, 0.9336585785, 8.2211287296, 6.5865771828, 8.2211287296, 6.5865771828, 1052.1017458753, 1292.7337433843, 0.1153924539, 0.1519865241, 0.0000000000, 0.0000000000, -6.86070014e-01, 1.37698405e+00, -2.59053062e-01, 5.42040424e+00, 0.00000000e+00, -8.8255436000, 3.0000000000, 1.0000000000, 0.0014211796
           1, 0.8686969892, 0.6361801958, 0.0000939261, 1883.8387441495, 0.8813938114, 7.0547556801, 4.9937845302, 7.0547556801, 4.9937845302, 1182.0744065515, 1628.1158277884, 0.1277060992, 0.2010928744, 0.0000000000, 0.0000000000, -7.47197531e-01, 1.31533554e+00, -1.96663090e-01, 5.35924562e+00, 0.00000000e+00, -8.8504526556, 3.0000000000, 1.0000000000, 0.0045875060
           2, 0.8619980724, 0.5971575236, 0.0001197424, 2673.2038461785, 0.8403038600, 6.2308539583, 4.0855401168, 6.2308539583, 4.0855401168, 1286.4192405544, 1908.1413766560, 0.1373822013, 0.2465927374, 0.0000000000, 0.0000000000, -8.01730069e-01, 1.25999451e+00, -1.18233158e-01, 5.30470975e+00, 0.00000000e+00, -8.8716886539, 3.0000000000, 1.0000000000, 0.0058394114
           3, 0.8519201165, 0.5521521375, 0.0001359081, 3359.2217129364, 0.8080783427, 5.6171546853, 3.5070956987, 5.6171546853, 3.5070956987, 1367.8863742333, 2140.3755519630, 0.1447996872, 0.2880585292, 0.0000000000, 0.0000000000, -8.48383225e-01, 1.21189411e+00, -5.95490685e-02, 5.25808830e+00, 0.00000000e+00, -8.8872796162, 3.0000000000, 1.0000000000, 0.0070919720
           4, 0.8412567680, 0.5078978424, 0.0001450728, 3946.0137132963, 0.7828822984, 5.1409360233, 3.1124809966, 5.1409360233, 3.1124809966, 1429.1507386553, 2331.6221119305, 0.1502906355, 0.3252733823, 0.0000000000, 0.0000000000, -8.86452795e-01, 1.17165626e+00, -1.96794412e-02, 5.22008085e+00, 0.00000000e+00, -8.8978569281, 3.0000000000, 1.0000000000, 0.0083439037
           5, 0.8309611470, 0.4670991325, 0.0001494040, 4439.9338543264, 0.7632629402, 4.7586081485, 2.8308778346, 4.7586081485, 2.8308778346, 1472.8650453149, 2487.9668748669, 0.1541532158, 0.3581895029, 0.0000000000, 0.0000000000, -9.16459657e-01, 1.13937562e+00, 6.98131789e-03, 5.19015020e+00, 0.00000000e+00, -8.9050797725, 3.0000000000, 1.0000000000, 0.0096054792
           6, 0.8214253114, 0.4309756010, 0.0001506187, 4848.6252951736, 0.7480716738, 4.4423525246, 2.6237302757, 4.4423525246, 2.6237302757, 1501.6659373535, 2614.8113788666, 0.1566602814, 0.3868929241, 0.0000000000, 0.0000000000, -9.39728536e-01, 1.11449063e+00, 2.14421209e-02, 5.16695437e+00, 0.00000000e+00, -8.9107086096, 3.0000000000, 1.0000000000, 0.0108585577
           7, 0.8128143357, 0.4000010640, 0.0001500289, 5180.4219046363, 0.7363986723, 4.1733378747, 2.4681821377, 4.1733378747, 2.4681821377, 1518.1469172289, 2716.9039992208, 0.1580638493, 0.4115710132, 0.0000000000, 0.0000000000, -9.57776570e-01, 1.09590263e+00, 2.94430610e-02, 5.14896538e+00, 0.00000000e+00, -8.9161044584, 2.0000000000, 1.0000000000, 0.0120246193
           8, 0.8051878687, 0.3741950185, 0.0001485831, 5444.1592761884, 0.7275162834, 3.9383318175, 2.3496697067, 3.9383318175, 2.3496697067, 1524.8160780023, 2798.3617210130, 0.1585969697, 0.4324828337, 0.0000000000, 0.0000000000, -9.71974246e-01, 1.08228225e+00, 3.45425616e-02, 5.13480858e+00, 0.00000000e+00, -8.9220333981, 2.0000000000, 1.0000000000, 0.0131889182
           9, 0.7985455386, 0.3532931424, 0.0001469279, 5648.7555826313, 0.7208415792, 3.7274109339, 2.2584838718, 3.7274109339, 2.2584838718, 1524.0429941208, 2862.7540496068, 0.1584731236, 0.4499383749, 0.0000000000, 0.0000000000, -9.83333314e-01, 1.07214648e+00, 3.82195849e-02, 5.12347245e+00, 0.00000000e+00, -8.9287683142, 2.0000000000, 1.0000000000, 0.0143592517
          10, 0.7928546820, 0.3368643715, 0.0001454665, 5802.8688892797, 0.7159083877, 3.5331224560, 2.1878919251, 3.5331224560, 2.1878919251, 1517.9682587214, 2913.0990226261, 0.1578826331, 0.4642703638, 0.0000000000, 0.0000000000, -9.92624561e-01, 1.06430181e+00, 4.06325840e-02, 5.11418830e+00, 0.00000000e+00, -8.9362827295, 2.0000000000, 1.0000000000, 0.0155258653
          11, 0.7880630067, 0.3244849528, 0.0001444809, 5914.1686167491, 0.7123432222, 3.3501772428, 2.1330978962, 3.3501772428, 2.1330978962, 1508.4671243247, 2951.9352742849, 0.1569913679, 0.4758190593, 0.0000000000, 0.0000000000, -1.00039020e+00, 1.05779943e+00, 4.25854042e-02, 5.10641713e+00, 0.00000000e+00, -8.9444145923, 2.0000000000, 1.0000000000, 0.0166922586
          12, 0.7841088045, 0.3156332724, 0.0001440785, 5990.0691129698, 0.7098445078, 3.1748525045, 2.0908647409, 3.1748525045, 2.0908647409, 1497.1244699040, 2981.3817507355, 0.1559390456, 0.4849191055, 0.0000000000, 0.0000000000, -1.00701586e+00, 1.05197929e+00, 4.46379196e-02, 5.09977419e+00, 0.00000000e+00, -8.9529371460, 2.0000000000, 1.0000000000, 0.0178583215
          13, 0.7809195139, 0.3098040611, 0.0001442839, 6036.9970443249, 0.7081762526, 3.0045730445, 2.0585554639, 3.0045730445, 2.0585554639, 1485.2271448240, 3003.1974774829, 0.1548406802, 0.4918901157, 0.0000000000, 0.0000000000, -1.01276240e+00, 1.04643558e+00, 4.73101783e-02, 5.09400356e+00, 0.00000000e+00, -8.9616410223, 2.0000000000, 1.0000000000, 0.0190234751
          14, 0.7784187556, 0.3065364988, 0.0001450747, 6060.4406888364, 0.7071524748, 2.8347352594, 2.0340448198, 2.8347352594, 2.0340448198, 1474.0314451454, 3018.8247274825, 0.1538140934, 0.4970299097, 0.0000000000, 0.0000000000, -1.01786814e+00, 1.04090060e+00, 5.13922054e-02, 5.08887187e+00, 0.00000000e+00, -8.9703976440, 2.0000000000, 1.0000000000, 0.0201877943
          15, 0.7765348752, 0.3053986538, 0.0001463867, 6065.3250986091, 0.7066206584, 2.6669193037, 2.0158190976, 2.6669193037, 2.0158190976, 1464.2426470198, 3029.4407920064, 0.1529230991, 0.5006107881, 0.0000000000, 0.0000000000, -1.02257473e+00, 1.03538287e+00, 5.62720688e-02, 5.08413829e+00, 0.00000000e+00, -8.9790810122, 2.0000000000, 1.0000000000, 0.0213533125
          16, 0.7752317325, 0.3059975619, 0.0001481336, 6057.0448719594, 0.7064200961, 2.5018579502, 2.0028243392, 2.5018579502, 2.0028243392, 1456.0129442060, 3036.0045339764, 0.1521676193, 0.5028774980, 0.0000000000, 0.0000000000, -1.02714069e+00, 1.02978399e+00, 6.12655445e-02, 5.07954272e+00, 0.00000000e+00, -8.9876015480, 2.0000000000, 1.0000000000, 0.0225178943
          17, 0.7744173511, 0.3079815718, 0.0001502192, 6038.2725999656, 0.7064856208, 2.3396209415, 1.9943333303, 2.3396209415, 1.9943333303, 1449.4609224943, 3039.2992196505, 0.1515624814, 0.5040478022, 0.0000000000, 0.0000000000, -1.03156469e+00, 1.02405562e+00, 6.63498320e-02, 5.07509036e+00, 0.00000000e+00, -8.9958922834, 2.0000000000, 1.0000000000, 0.0236902117
          18, 0.7740090397, 0.3110511240, 0.0001525546, 6011.2585921423, 0.7067647926, 2.1798506459, 1.9896133975, 2.1798506459, 1.9896133975, 1444.5738819298, 3039.9614994040, 0.1511094451, 0.5043142340, 0.0000000000, 0.0000000000, -1.03590923e+00, 1.01843947e+00, 7.12558172e-02, 5.07071949e+00, 0.00000000e+00, -9.0039011439, 2.0000000000, 1.0000000000, 0.0248569466
          19, 0.7739418161, 0.3149432842, 0.0001550527, 5978.2143101604, 0.7072061044, 2.0232566908, 1.9878409296, 2.0232566908, 1.9878409296, 1441.1775877123, 3038.5027616290, 0.1507917891, 0.5038440197, 0.0000000000, 0.0000000000, -1.04027326e+00, 1.01291770e+00, 7.52115407e-02, 5.06633156e+00, 0.00000000e+00, -9.0115956263, 2.0000000000, 1.0000000000, 0.0260220034
          20, 0.7741573286, 0.3194334006, 0.0001576358, 5940.9772906320, 0.7077683039, 1.8704986299, 1.9885409158, 1.8704986299, 1.9885409158, 1439.0726606089, 3035.3499017993, 0.1505903836, 0.5027824249, 0.0000000000, 0.0000000000, -1.04470804e+00, 1.00742112e+00, 7.90662229e-02, 5.06187531e+00, 0.00000000e+00, -9.0189509241, 2.0000000000, 1.0000000000, 0.0271876327
          21, 0.7745994677, 0.3243397490, 0.0001602416, 5900.8460695865, 0.7084241449, 1.7219952342, 1.9913631117, 1.7219952342, 1.9913631117, 1438.0528999816, 3030.8522088855, 0.1504869172, 0.5012535584, 0.0000000000, 0.0000000000, -1.04919140e+00, 1.00198148e+00, 8.28058981e-02, 5.05737416e+00, 0.00000000e+00, -9.0259590397, 2.0000000000, 1.0000000000, 0.0283559649
          22, 0.7752184450, 0.3295125116, 0.0001628191, 5858.8259819662, 0.7091533147, 1.5780493902, 1.9959466380, 1.5780493902, 1.9959466380, 1437.8914357029, 3025.2945757792, 0.1504611670, 0.4993626957, 0.0000000000, 0.0000000000, -1.05373605e+00, 9.96633833e-01, 8.52409399e-02, 5.05281501e+00, 0.00000000e+00, -9.0326329753, 2.0000000000, 1.0000000000, 0.0295209430
          23, 0.7759701728, 0.3348235937, 0.0001653240, 5815.7226424352, 0.7099404640, 1.4391030446, 2.0020066179, 1.4391030446, 2.0020066179, 1438.3750588479, 3018.9165672350, 0.1504942745, 0.4971995008, 0.0000000000, 0.0000000000, -1.05828569e+00, 9.91437107e-01, 8.56707473e-02, 5.04825425e+00, 0.00000000e+00, -9.0389625741, 2.0000000000, 1.0000000000, 0.0306874781
          24, 0.7768170730, 0.3401635059, 0.0001677173, 5772.2060604668, 0.7107733657, 1.3054176507, 2.0091991866, 1.3054176507, 2.0091991866, 1439.2941382795, 3011.9164757175, 0.1505674156, 0.4948390606, 0.0000000000, 0.0000000000, -1.06283109e+00, 9.86434687e-01, 8.46764674e-02, 5.04370074e+00, 0.00000000e+00, -9.0449581768, 2.0000000000, 1.0000000000, 0.0318536833
          25, 0.7777233462, 0.3454399214, 0.0001699670, 5728.7188167437, 0.7116456262, 1.1768130633, 2.0171595435, 1.1768130633, 2.0171595435, 1440.4362610605, 3004.4622680632, 0.1506620488, 0.4923456116, 0.0000000000, 0.0000000000, -1.06738178e+00, 9.81504699e-01, 8.25035108e-02, 5.03914420e+00, 0.00000000e+00, -9.0506345793, 2.0000000000, 1.0000000000, 0.0330222987
          26, 0.7786590762, 0.3505632808, 0.0001720438, 5685.8634495509, 0.7125446885, 1.0527577869, 2.0253006465, 1.0527577869, 2.0253006465, 1441.6523835760, 2996.7341847188, 0.1507644471, 0.4897816746, 0.0000000000, 0.0000000000, -1.07193367e+00, 9.76647912e-01, 7.92647931e-02, 5.03458828e+00, 0.00000000e+00, -9.0560119581, 2.0000000000, 1.0000000000, 0.0341893527
          27, 0.7795793535, 0.3554231779, 0.0001739058, 5643.8905552563, 0.7134734212, 0.9329744115, 2.0334771041, 0.9329744115, 2.0334771041, 1442.8269633153, 2989.0162443691, 0.1508633845, 0.4872120775, 0.0000000000, 0.0000000000, -1.07644843e+00, 9.71900779e-01, 7.51211724e-02, 5.03007122e+00, 0.00000000e+00, -9.0611255680, 2.0000000000, 1.0000000000, 0.0353565100
          28, 0.7804320063, 0.3599409002, 0.0001755391, 5602.6558105520, 0.7144406686, 0.8179572125, 2.0413356109, 0.8179572125, 2.0413356109, 1443.8972773770, 2981.6384162050, 0.1509532568, 0.4847042805, 0.0000000000, 0.0000000000, -1.08089871e+00, 9.67257367e-01, 7.01257751e-02, 5.02562070e+00, 0.00000000e+00, -9.0659948450, 2.0000000000, 1.0000000000, 0.0365244637
          29, 0.7812054682, 0.3641347458, 0.0001769790, 5562.1893317427, 0.7154358649, 0.7080308873, 2.0488949680, 0.7080308873, 2.0488949680, 1444.8064387867, 2974.6796060059, 0.1510291264, 0.4822884893, 0.0000000000, 0.0000000000, -1.08531463e+00, 9.62780032e-01, 6.48029854e-02, 5.02120663e+00, 0.00000000e+00, -9.0706343956, 2.0000000000, 1.0000000000, 0.0376922166
          30, 0.7819414464, 0.3681221738, 0.0001783186, 5523.2944029595, 0.7164059014, 0.6030502101, 2.0556254296, 0.6030502101, 2.0556254296, 1445.5488267273, 2967.9397699688, 0.1510905806, 0.4799682164, 0.0000000000, 0.0000000000, -1.08980659e+00, 9.58489604e-01, 5.90376074e-02, 5.01671894e+00, 0.00000000e+00, -9.0750567721, 2.0000000000, 1.0000000000, 0.0388596947
          31, 0.7826816326, 0.3720319110, 0.0001796560, 5486.5820380673, 0.7173026150, 0.5026764489, 2.0627177239, 0.5026764489, 2.0627177239, 1446.1272238026, 2961.2142123800, 0.1511378402, 0.4777406771, 0.0000000000, 0.0000000000, -1.09441909e+00, 9.54319824e-01, 5.35668248e-02, 5.01211235e+00, 0.00000000e+00, -9.0792745424, 2.0000000000, 1.0000000000, 0.0400278765
          32, 0.7834196010, 0.3758985631, 0.0001810313, 5451.8708169812, 0.7181209745, 0.4067513309, 2.0706359944, 0.4067513309, 2.0706359944, 1446.5430065324, 2954.5634266978, 0.1511709742, 0.4756207968, 0.0000000000, 0.0000000000, -1.09901987e+00, 9.50224588e-01, 4.89552675e-02, 5.00751850e+00, 0.00000000e+00, -9.0833254463, 2.0000000000, 1.0000000000, 0.0411948117
          33, 0.7841187254, 0.3796520023, 0.0001824080, 5418.6608833428, 0.7188880465, 0.3152362368, 2.0794856816, 0.3152362368, 2.0794856816, 1446.8076940721, 2948.2058847889, 0.1511910395, 0.4736282713, 0.0000000000, 0.0000000000, -1.10351330e+00, 9.46224076e-01, 4.48168193e-02, 5.00303196e+00, 0.00000000e+00, -9.0872377474, 2.0000000000, 1.0000000000, 0.0423647319
          34, 0.7848102990, 0.3833684365, 0.0001838315, 5387.1987348637, 0.7195826234, 0.2279538810, 2.0891063451, 0.2279538810, 2.0891063451, 1446.9348446238, 2941.9694111637, 0.1511991523, 0.4717420417, 0.0000000000, 0.0000000000, -1.10799981e+00, 9.42363849e-01, 4.15115477e-02, 4.99855392e+00, 0.00000000e+00, -9.0910338927, 2.0000000000, 1.0000000000, 0.0435319666
          35, 0.7854944868, 0.3870898733, 0.0001853367, 5357.2093777421, 0.7202044245, 0.1447846104, 2.0989750502, 0.1447846104, 2.0989750502, 1446.9473122701, 2935.8665470352, 0.1511973149, 0.4699613189, 0.0000000000, 0.0000000000, -1.11238555e+00, 9.38492717e-01, 4.09897851e-02, 4.99417704e+00, 0.00000000e+00, -9.0947525183, 2.0000000000, 1.0000000000, 0.0446992798
          36, 0.7861442017, 0.3907762924, 0.0001869085, 5328.2808604825, 0.7207717138, 0.0655691834, 2.1084344790, 0.0655691834, 2.1084344790, 1446.8659492050, 2930.0678116711, 0.1511874005, 0.4683026927, 0.0000000000, 0.0000000000, -1.11659497e+00, 9.34523359e-01, 4.22929810e-02, 4.98997531e+00, 0.00000000e+00, -9.0984048467, 2.0000000000, 1.0000000000, 0.0458681420
          37, 0.7867058914, 0.3943092749, 0.0001884850, 5299.8987414432, 0.7213192992, -0.0097965331, 2.1170662834, -0.0097965331, 2.1170662834, 1446.7253455291, 2924.9043631379, 0.1511725862, 0.4668014058, 0.0000000000, 0.0000000000, -1.12067470e+00, 9.30474868e-01, 4.45911923e-02, 4.98590214e+00, 0.00000000e+00, -9.1020247493, 2.0000000000, 1.0000000000, 0.0470377622
          38, 0.7871516662, 0.3975881796, 0.0001900030, 5272.0248972669, 0.7218659377, -0.0815466769, 2.1249765267, -0.0815466769, 2.1249765267, 1446.5483161074, 2920.5495583113, 0.1511549896, 0.4654746127, 0.0000000000, 0.0000000000, -1.12466226e+00, 9.26575628e-01, 4.69067054e-02, 4.98191977e+00, 0.00000000e+00, -9.1056049261, 2.0000000000, 1.0000000000, 0.0482088795
          39, 0.7875130002, 0.4006142422, 0.0001914480, 5245.3936304040, 0.7223901000, -0.1498233366, 2.1321020002, -0.1498233366, 2.1321020002, 1446.3535802757, 2916.8289179692, 0.1511362820, 0.4643016350, 0.0000000000, 0.0000000000, -1.12866673e+00, 9.22932717e-01, 4.87183204e-02, 4.97792024e+00, 0.00000000e+00, -9.1091289309, 2.0000000000, 1.0000000000, 0.0493783630
          40, 0.7878196549, 0.4034079207, 0.0001928206, 5220.5701960467, 0.7228719100, -0.2146315430, 2.1384858064, -0.2146315430, 2.1384858064, 1446.1578786437, 2913.5766237873, 0.1511179062, 0.4632624409, 0.0000000000, 0.0000000000, -1.13260932e+00, 9.19410222e-01, 4.96378995e-02, 4.97398193e+00, 0.00000000e+00, -9.1125836111, 2.0000000000, 1.0000000000, 0.0505475829
          41, 0.7880990229, 0.4060085123, 0.0001941365, 5197.9226118955, 0.7232941403, -0.2758817299, 2.1443560214, -0.2758817299, 2.1443560214, 1445.9751204951, 2910.6363960957, 0.1511010822, 0.4623374102, 0.0000000000, 0.0000000000, -1.13645064e+00, 9.15961343e-01, 4.97734854e-02, 4.97014446e+00, 0.00000000e+00, -9.1159580984, 2.0000000000, 1.0000000000, 0.0517253698
          42, 0.7883710950, 0.4084542009, 0.0001954124, 5177.6114269192, 0.7236464237, -0.3336301463, 2.1499435357, -0.3336301463, 2.1499435357, 1445.8195590363, 2907.8901255314, 0.1510871258, 0.4615095282, 0.0000000000, 0.0000000000, -1.14012799e+00, 9.12548931e-01, 4.97918586e-02, 4.96647053e+00, 0.00000000e+00, -9.1192569656, 3.0000000000, 1.0000000000, 0.0529849949
          43, 0.7886361324, 0.4107509054, 0.0001966494, 5159.5259091889, 0.7239322619, -0.3880232710, 2.1552167606, -0.3880232710, 2.1552167606, 1445.6989701823, 2905.3330651912, 0.1510767265, 0.4607738028, 0.0000000000, 0.0000000000, -1.14364338e+00, 9.09166786e-01, 5.04562497e-02, 4.96295870e+00, 0.00000000e+00, -9.1225006323, 3.0000000000, 1.0000000000, 0.0542433370
          44, 0.7888847029, 0.4128850313, 0.0001978373, 5143.4460495221, 0.7241620557, -0.4391233949, 2.1600492674, -0.4391233949, 2.1600492674, 1445.6161046917, 2903.0154206840, 0.1510700826, 0.4601310412, 0.0000000000, 0.0000000000, -1.14706613e+00, 9.05869442e-01, 5.13609521e-02, 4.95953966e+00, 0.00000000e+00, -9.1257053018, 3.0000000000, 1.0000000000, 0.0555036733
          45, 0.7891092636, 0.4148454108, 0.0001989666, 5129.1825384484, 0.7243449689, -0.4870339916, 2.1642043012, -0.4870339916, 2.1642043012, 1445.5723385998, 2900.9753347109, 0.1510672888, 0.4595808425, 0.0000000000, 0.0000000000, -1.15038240e+00, 9.02731893e-01, 5.24496186e-02, 4.95622739e+00, 0.00000000e+00, -9.1288733246, 3.0000000000, 1.0000000000, 0.0567636007
          46, 0.7893043998, 0.4166267214, 0.0002000312, 5116.5590697788, 0.7244887970, -0.5318389644, 2.1675059667, -0.5318389644, 2.1675059667, 1445.5665288295, 2899.2372999006, 0.1510682050, 0.4591214160, 0.0000000000, 0.0000000000, -1.15362339e+00, 8.99704394e-01, 5.30361215e-02, 4.95299051e+00, 0.00000000e+00, -9.1320043178, 3.0000000000, 1.0000000000, 0.0580230464
          47, 0.7894661431, 0.4182261648, 0.0002010272, 5105.4364065449, 0.7245994693, -0.5736316810, 2.1697916428, -0.5736316810, 2.1697916428, 1445.5919238515, 2897.8183398611, 0.1510721240, 0.4587511796, 0.0000000000, 0.0000000000, -1.15680877e+00, 8.96796386e-01, 5.42400650e-02, 4.94980954e+00, 0.00000000e+00, -9.1350999568, 3.0000000000, 1.0000000000, 0.0592850123
          48, 0.7895922285, 0.4196413175, 0.0002019492, 5095.7024857618, 0.7246823485, -0.6125103393, 2.1710571540, -0.6125103393, 2.1710571540, 1445.6438130778, 2896.7234865993, 0.1510785763, 0.4584667991, 0.0000000000, 0.0000000000, -1.15997309e+00, 8.93969163e-01, 5.57934042e-02, 4.94664986e+00, 0.00000000e+00, -9.1381613527, 3.0000000000, 1.0000000000, 0.0605441693
          49, 0.7896840056, 0.4208754045, 0.0002027951, 5087.3044292664, 0.7247398832, -0.6485494845, 2.1715591848, -0.6485494845, 2.1715591848, 1445.7166662113, 2895.9366316732, 0.1510870200, 0.4582632480, 0.0000000000, 0.0000000000, -1.16306369e+00, 8.91165609e-01, 5.72878024e-02, 4.94356342e+00, 0.00000000e+00, -9.1411768246, 3.0000000000, 1.0000000000, 0.0618094351
          50, 0.7897460597, 0.4219373406, 0.0002035643, 5080.2081196306, 0.7247733840, -0.6818492155, 2.1713630413, -0.6818492155, 2.1713630413, 1445.8029998899, 2895.4199186240, 0.1510967504, 0.4581321967, 0.0000000000, 0.0000000000, -1.16604109e+00, 8.88421199e-01, 5.89584118e-02, 4.94058977e+00, 0.00000000e+00, -9.1441502497, 3.0000000000, 1.0000000000, 0.0630710894
          51, 0.7897835650, 0.4228375309, 0.0002042573, 5074.3846491091, 0.7247837184, -0.7125001869, 2.1704641558, -0.7125001869, 2.1704641558, 1445.8981449441, 2895.1335808256, 0.1511072875, 0.4580650202, 0.0000000000, 0.0000000000, -1.16894278e+00, 8.85667236e-01, 6.09070658e-02, 4.93769142e+00, 0.00000000e+00, -9.1470876866, 3.0000000000, 1.0000000000, 0.0643341163
          52, 0.7898060441, 0.4235967438, 0.0002048798, 5069.8210490681, 0.7247697503, -0.7406212616, 2.1691375751, -0.7406212616, 2.1691375751, 1445.9970669857, 2895.0093388102, 0.1511181374, 0.4580492067, 0.0000000000, 0.0000000000, -1.17177143e+00, 8.82989580e-01, 6.22287073e-02, 4.93486572e+00, 0.00000000e+00, -9.1499924932, 3.0000000000, 1.0000000000, 0.0655960254
          53, 0.7898236897, 0.4242361922, 0.0002054390, 5066.5438184275, 0.7247285468, -0.7662870494, 2.1676082904, -0.7662870494, 2.1676082904, 1446.0964840622, 2894.9777848892, 0.1511289938, 0.4580734564, 0.0000000000, 0.0000000000, -1.17450537e+00, 8.80396304e-01, 6.28425108e-02, 4.93213471e+00, 0.00000000e+00, -9.1528649679, 3.0000000000, 1.0000000000, 0.0668563630
          54, 0.7898347209, 0.4247609903, 0.0002059343, 5064.3740007922, 0.7246665760, -0.7895864417, 2.1659454675, -0.7895864417, 2.1659454675, 1446.1950244177, 2895.0375992074, 0.1511397362, 0.4581325213, 0.0000000000, 0.0000000000, -1.17717853e+00, 8.77848303e-01, 6.27765925e-02, 4.92946452e+00, 0.00000000e+00, -9.1557031464, 3.0000000000, 1.0000000000, 0.0681177830
          55, 0.7898344198, 0.4251662170, 0.0002063593, 5063.1559885063, 0.7245909650, -0.8106057971, 2.1641253258, -0.8106057971, 2.1641253258, 1446.2900354370, 2895.2074789543, 0.1511501171, 0.4582246425, 0.0000000000, 0.0000000000, -1.17983180e+00, 8.75276999e-01, 6.24443989e-02, 4.92681387e+00, 0.00000000e+00, -9.1585029198, 3.0000000000, 1.0000000000, 0.0693793759
          56, 0.7898246470, 0.4254581600, 0.0002067144, 5062.8293170349, 0.7245037446, -0.8294345633, 2.1621189832, -0.8294345633, 2.1621189832, 1446.3796719431, 2895.4694436352, 0.1511599477, 0.4583446578, 0.0000000000, 0.0000000000, -1.18247785e+00, 8.72746363e-01, 6.16617980e-02, 4.92417015e+00, 0.00000000e+00, -9.1612584972, 3.0000000000, 1.0000000000, 0.0706405663
          57, 0.7898039470, 0.4256333543, 0.0002069925, 5063.3007965796, 0.7244101144, -0.8461775077, 2.1599383995, -0.8461775077, 2.1599383995, 1446.4623004664, 2895.8229759834, 0.1511690650, 0.4584883985, 0.0000000000, 0.0000000000, -1.18506679e+00, 8.70241833e-01, 6.01814443e-02, 4.92158323e+00, 0.00000000e+00, -9.1639660785, 3.0000000000, 1.0000000000, 0.0719028209
          58, 0.7897668555, 0.4256805134, 0.0002071837, 5064.4577387099, 0.7243167723, -0.8609081251, 2.1579241647, -0.8609081251, 2.1579241647, 1446.5370306694, 2896.2932757554, 0.1511773708, 0.4586557276, 0.0000000000, 0.0000000000, -1.18761781e+00, 8.67766082e-01, 5.82106288e-02, 4.91903411e+00, 0.00000000e+00, -9.1666310642, 3.0000000000, 1.0000000000, 0.0731680749
          59, 0.7897147175, 0.4256032038, 0.0002072848, 5066.2157818819, 0.7242275346, -0.8736918010, 2.1556157028, -0.8736918010, 2.1556157028, 1446.6038431779, 2896.8636621515, 0.1511848551, 0.4588400716, 0.0000000000, 0.0000000000, -1.19016155e+00, 8.65306357e-01, 5.55034219e-02, 4.91649229e+00, 0.00000000e+00, -9.1692637801, 3.0000000000, 1.0000000000, 0.0744322416
          60, 0.7896505727, 0.4254085745, 0.0002072987, 5068.5782843649, 0.7241414687, -0.8846024947, 2.1524490324, -0.8846024947, 2.1524490324, 1446.6631099233, 2897.5153093500, 0.1511915415, 0.4590381389, 0.0000000000, 0.0000000000, -1.19271000e+00, 8.62829212e-01, 5.29223315e-02, 4.91394545e+00, 0.00000000e+00, -9.1718581770, 3.0000000000, 1.0000000000, 0.0756913598
          61, 0.7895815612, 0.4251111867, 0.0002072308, 5071.5686104335, 0.7240562527, -0.8937085690, 2.1483295093, -0.8937085690, 2.1483295093, 1446.7154768906, 2898.2015385175, 0.1511974857, 0.4592423339, 0.0000000000, 0.0000000000, -1.19523734e+00, 8.60368736e-01, 5.05609615e-02, 4.91141951e+00, 0.00000000e+00, -9.1744206384, 3.0000000000, 1.0000000000, 0.0769537854
          62, 0.7895084506, 0.4247142947, 0.0002070830, 5075.1738697975, 0.7239718198, -0.9010945753, 2.1434218268, -0.9010945753, 2.1434218268, 1446.7615400330, 2898.9171627329, 0.1512027207, 0.4594516212, 0.0000000000, 0.0000000000, -1.19775033e+00, 8.57949295e-01, 4.79944868e-02, 4.90890791e+00, 0.00000000e+00, -9.1769499667, 3.0000000000, 1.0000000000, 0.0782187459
          63, 0.7894274476, 0.4242155101, 0.0002068531, 5079.2723447955, 0.7238930279, -0.9068145892, 2.1380346612, -0.9068145892, 2.1380346612, 1446.8003648160, 2899.6788777774, 0.1512071593, 0.4596656435, 0.0000000000, 0.0000000000, -1.20024404e+00, 8.55525213e-01, 4.49751026e-02, 4.90641540e+00, 0.00000000e+00, -9.1794489650, 3.0000000000, 1.0000000000, 0.0794799228
          64, 0.7893401797, 0.4236235614, 0.0002065459, 5083.8112760703, 0.7238203447, -0.9109125155, 2.1325929554, -0.9109125155, 2.1325929554, 1446.8322531658, 2900.4731390122, 0.1512108302, 0.4598814560, 0.0000000000, 0.0000000000, -1.20269154e+00, 8.53061236e-01, 4.13543308e-02, 4.90396863e+00, 0.00000000e+00, -9.1819172982, 3.0000000000, 1.0000000000, 0.0807460268
          65, 0.7892519600, 0.4229568065, 0.0002061730, 5088.7693460698, 0.7237513318, -0.9134372055, 2.1274782426, -0.9134372055, 2.1274782426, 1446.8564527860, 2901.2656730631, 0.1512136511, 0.4600942566, 0.0000000000, 0.0000000000, -1.20510501e+00, 8.50602500e-01, 3.75590839e-02, 4.90155586e+00, 0.00000000e+00, -9.1843606462, 3.0000000000, 1.0000000000, 0.0820106565
          66, 0.7891661503, 0.4222270672, 0.0002057418, 5094.1306402448, 0.7236844550, -0.9144676962, 2.1228556817, -0.9144676962, 2.1228556817, 1446.8741787977, 2902.0351528535, 0.1512157413, 0.4603009932, 0.0000000000, 0.0000000000, -1.20752167e+00, 8.48211794e-01, 3.34172882e-02, 4.89913958e+00, 0.00000000e+00, -9.1867847069, 3.0000000000, 1.0000000000, 0.0832779011
          67, 0.7890862062, 0.4214450267, 0.0002052587, 5099.8856251722, 0.7236182885, -0.9140787601, 2.1187916143, -0.9140787601, 2.1187916143, 1446.8870185107, 2902.7596253728, 0.1512172567, 0.4604983440, 0.0000000000, 0.0000000000, -1.20992451e+00, 8.45787001e-01, 2.93457054e-02, 4.89673632e+00, 0.00000000e+00, -9.1891992155, 3.0000000000, 1.0000000000, 0.0845396962
          68, 0.7890144767, 0.4206239195, 0.0002047323, 5105.9715323478, 0.7235526367, -0.9123263123, 2.1150337059, -0.9123263123, 2.1150337059, 1446.8954765755, 2903.4228673279, 0.1512182554, 0.4606831061, 0.0000000000, 0.0000000000, -1.21229174e+00, 8.43303516e-01, 2.58466430e-02, 4.89436814e+00, 0.00000000e+00, -9.1916003352, 3.0000000000, 1.0000000000, 0.0858015124
          69, 0.7889530703, 0.4197748630, 0.0002041696, 5112.3345864208, 0.7234874484, -0.9092600435, 2.1114492483, -0.9092600435, 2.1114492483, 1446.9005444462, 2904.0102001620, 0.1512188315, 0.4608522504, 0.0000000000, 0.0000000000, -1.21466970e+00, 8.40808891e-01, 2.23923074e-02, 4.89198886e+00, 0.00000000e+00, -9.1939969882, 3.0000000000, 1.0000000000, 0.0870676495
          70, 0.7889035167, 0.4189055409, 0.0002035758, 5118.9496046696, 0.7234221061, -0.9049273765, 2.1079958114, -0.9049273765, 2.1079958114, 1446.9026814811, 2904.5121047666, 0.1512190248, 0.4610042818, 0.0000000000, 0.0000000000, -1.21704667e+00, 8.38312555e-01, 1.87917407e-02, 4.88961053e+00, 0.00000000e+00, -9.1963959829, 3.0000000000, 1.0000000000, 0.0883293250
          71, 0.7888657226, 0.4180206627, 0.0002029548, 5125.7722622189, 0.7233571061, -0.8993924486, 2.1047432674, -0.8993924486, 2.1047432674, 1446.9023905435, 2904.9279675218, 0.1512189002, 0.4611387225, 0.0000000000, 0.0000000000, -1.21943539e+00, 8.35888546e-01, 1.55718262e-02, 4.88722042e+00, 0.00000000e+00, -9.1987963401, 3.0000000000, 1.0000000000, 0.0895936465
          72, 0.7888381345, 0.4171221739, 0.0002023088, 5132.7395407755, 0.7232940454, -0.8927195272, 2.1017095578, -0.8927195272, 2.1017095578, 1446.8995847720, 2905.2656621439, 0.1512184573, 0.4612558905, 0.0000000000, 0.0000000000, -1.22186085e+00, 8.33530959e-01, 1.24360677e-02, 4.88479326e+00, 0.00000000e+00, -9.2011936310, 3.0000000000, 1.0000000000, 0.0908556505
          73, 0.7888198701, 0.4162117471, 0.0002016395, 5139.8120706016, 0.7232337847, -0.8849728039, 2.0989183858, -0.8849728039, 2.0989183858, 1446.8942683152, 2905.5296291261, 0.1512177088, 0.4613560195, 0.0000000000, 0.0000000000, -1.22431846e+00, 8.31203530e-01, 9.90804058e-03, 4.88233374e+00, 0.00000000e+00, -9.2035810511, 3.0000000000, 1.0000000000, 0.0921179333
          74, 0.7888088524, 0.4152879328, 0.0002009471, 5146.9467251631, 0.7231777891, -0.8762112149, 2.0965324710, -0.8762112149, 2.0965324710, 1446.8866122819, 2905.7315736273, 0.1512166804, 0.4614403571, 0.0000000000, 0.0000000000, -1.22674257e+00, 8.28847780e-01, 8.08882227e-03, 4.87990731e+00, 0.00000000e+00, -9.2059578533, 3.0000000000, 1.0000000000, 0.0933821656
          75, 0.7888027011, 0.4143523776, 0.0002002345, 5154.0740392215, 0.7231276667, -0.8664869661, 2.0945836239, -0.8664869661, 2.0945836239, 1446.8771677090, 2905.8854075347, 0.1512154339, 0.4615104224, 0.0000000000, 0.0000000000, -1.22912215e+00, 8.26427173e-01, 6.68532053e-03, 4.87752513e+00, 0.00000000e+00, -9.2083290106, 3.0000000000, 1.0000000000, 0.0946438778
          76, 0.7887993821, 0.4134065737, 0.0001995045, 5161.1393079686, 0.7230845318, -0.8558467270, 2.0929987512, -0.8558467270, 2.0929987512, 1446.8660793866, 2906.0038747072, 0.1512139801, 0.4615678322, 0.0000000000, 0.0000000000, -1.23147511e+00, 8.24008221e-01, 5.91658625e-03, 4.87516914e+00, 0.00000000e+00, -9.2106924532, 3.0000000000, 1.0000000000, 0.0959050126
          77, 0.7887973240, 0.4124499442, 0.0001987582, 5168.1172971942, 0.7230489559, -0.8443450788, 2.0917569861, -0.8443450788, 2.0917569861, 1446.8528261333, 2906.0973482403, 0.1512122614, 0.4616141888, 0.0000000000, 0.0000000000, -1.23381271e+00, 8.21552502e-01, 5.55374247e-03, 4.87282813e+00, 0.00000000e+00, -9.2130548146, 3.0000000000, 1.0000000000, 0.0971695598
          78, 0.7887963385, 0.4114853422, 0.0001979991, 5174.9991583710, 0.7230202966, -0.8320219062, 2.0908581142, -0.8320219062, 2.0908581142, 1446.8378870238, 2906.1686712195, 0.1512103223, 0.4616505493, 0.0000000000, 0.0000000000, -1.23612812e+00, 8.19087254e-01, 5.54252529e-03, 4.87050962e+00, 0.00000000e+00, -9.2154099564, 3.0000000000, 1.0000000000, 0.0984361161