TITLE = "SU2 Simulation"
VARIABLES = "Iteration","TotalPressureLoss_1","KineticEnergyLoss_1","EntropyGen_1","EulerianWork_1","PressureRatio_1","FlowAngleIn_1","FlowAngleOut_1","AbsFlowAngleIn_1","AbsFlowAngleOut_1","MassFlowIn_1","MassFlowOut_1","MachIn_1","MachOut_1","TotalEfficiency_1","TotalStaticEfficiency_1","Res_Flow[0]","Res_Flow[1]","Res_Flow[2]","Res_Flow[3]","Res_Flow[4]","Res_Turb[0]","Linear_Solver_Iterations","CFL_Number","Time(min)"
ZONE T= "Convergence history"
           0, 0.7128641982, 0.2142383038, 0.0000053021, 338.5429149889, 0.9819092515, 9.8184819459, 8.2591881303, 9.8184819459, 8.2591881303, 678.2337266883, 818.2011942302, 0.0987345650, 0.1210641427, 0.0000000000, 0.0000000000, -1.22355171e+00, 8.63307816e-01, -6.34906983e-01, 4.88423363e+00, 0.00000000e+00, -9.2006911260, 2.0000000000, 1.0000000000, 0.0020814540
           1, 0.7772328917, 0.2450190992, 0.0000084190, 640.2546195081, 0.9666539857, 9.6195989340, 7.1556794463, 9.6195989340, 7.1556794463, 670.6467335640, 929.5550677280, 0.0976682326, 0.1398276781, 0.0000000000, 0.0000000000, -1.28451471e+00, 8.03793878e-01, -5.21397565e-01, 4.82320539e+00, 0.00000000e+00, -9.2067951834, 2.0000000000, 1.0000000000, 0.0059716158
           2, 0.7968404535, 0.2361961397, 0.0000100182, 905.2536309657, 0.9538635416, 9.4052733668, 6.4089867758, 9.4052733668, 6.4089867758, 664.4747176171, 1023.2985189408, 0.0967870105, 0.1562575239, 0.0000000000, 0.0000000000, -1.33763982e+00, 7.48292278e-01, -4.37766817e-01, 4.77005938e+00, 0.00000000e+00, -9.2164205840, 2.0000000000, 1.0000000000, 0.0077987716
           3, 0.8043158496, 0.2156216477, 0.0000105890, 1134.6110187822, 0.9432216280, 9.1777052460, 5.8825757055, 9.1777052460, 5.8825757055, 659.5918172415, 1101.2161370507, 0.0960754531, 0.1703869368, 0.0000000000, 0.0000000000, -1.38525565e+00, 6.98999669e-01, -3.71496751e-01, 4.72244439e+00, 0.00000000e+00, -9.2228652732, 2.0000000000, 1.0000000000, 0.0096274075
           4, 0.8072582774, 0.1924287882, 0.0000105070, 1329.8769685682, 0.9344568412, 8.9392877828, 5.5021930751, 8.9392877828, 5.5021930751, 655.8640571875, 1165.0112614534, 0.0955167756, 0.1823004837, 0.0000000000, 0.0000000000, -1.42608939e+00, 6.57846025e-01, -3.22527102e-01, 4.68162776e+00, 0.00000000e+00, -9.2276138226, 2.0000000000, 1.0000000000, 0.0114822720
           5, 0.8083107715, 0.1703240216, 0.0000100542, 1492.9515750033, 0.9273349267, 8.6925100378, 5.2239136386, 8.6925100378, 5.2239136386, 653.1508941252, 1216.3111875003, 0.0950931050, 0.1921241564, 0.0000000000, 0.0000000000, -1.45937369e+00, 6.25922360e-01, -2.86165846e-01, 4.64836743e+00, 0.00000000e+00, -9.2317074658, 2.0000000000, 1.0000000000, 0.0133390878
           6, 0.8085815214, 0.1508830889, 0.0000094322, 1626.0431096549, 0.9216510903, 8.4398676808, 5.0198948853, 8.4398676808, 5.0198948853, 651.3077968222, 1256.6587367504, 0.0947858643, 0.2000156193, 0.0000000000, 0.0000000000, -1.48497592e+00, 6.02956365e-01, -2.66864155e-01, 4.62278667e+00, 0.00000000e+00, -9.2358397017, 2.0000000000, 1.0000000000, 0.0151964558
           7, 0.8085733171, 0.1346638701, 0.0000087755, 1731.6282228935, 0.9172237136, 8.1837142401, 4.8715867899, 8.1837142401, 4.8715867899, 650.1896365559, 1287.5118085661, 0.0945762473, 0.2061564320, 0.0000000000, 0.0000000000, -1.50326973e+00, 5.87554345e-01, -2.56091938e-01, 4.60450652e+00, 0.00000000e+00, -9.2403522239, 2.0000000000, 1.0000000000, 0.0170518181
           8, 0.8085163404, 0.1216960823, 0.0000081649, 1812.4137730519, 0.9138882475, 7.9262071021, 4.7660022706, 7.9262071021, 4.7660022706, 649.6546676075, 1310.2317728201, 0.0944457887, 0.2107428989, 0.0000000000, 0.0000000000, -1.51524785e+00, 5.77913399e-01, -2.48869400e-01, 4.59253270e+00, 0.00000000e+00, -9.2453628807, 2.0000000000, 1.0000000000, 0.0189077653
           9, 0.8085063967, 0.1117222250, 0.0000076407, 1871.2430827701, 0.9114945970, 7.6692520670, 4.6936313025, 7.6692520670, 4.6936313025, 649.5685262389, 1326.0726671425, 0.0943769226, 0.2139768441, 0.0000000000, 0.0000000000, -1.52225428e+00, 5.72232532e-01, -2.44660578e-01, 4.58552249e+00, 0.00000000e+00, -9.2508399282, 2.0000000000, 1.0000000000, 0.0207630420
          10, 0.8085708189, 0.1043450666, 0.0000072158, 1911.0123755324, 0.9099046130, 7.4144560558, 4.6475842630, 7.4144560558, 4.6475842630, 649.8079788836, 1336.1792835036, 0.0943534967, 0.2160587742, 0.0000000000, 0.0000000000, -1.52571574e+00, 5.68947558e-01, -2.42943334e-01, 4.58205187e+00, 0.00000000e+00, -9.2566923959, 2.0000000000, 1.0000000000, 0.0226246876
          11, 0.8087022756, 0.0991201523, 0.0000068858, 1934.5822189017, 0.9089908620, 7.1631111768, 4.6221976957, 7.1631111768, 4.6221976957, 650.2640001282, 1341.5889278524, 0.0943611903, 0.2171820910, 0.0000000000, 0.0000000000, -1.52696687e+00, 5.66884586e-01, -2.42710889e-01, 4.58078874e+00, 0.00000000e+00, -9.2627975688, 2.0000000000, 1.0000000000, 0.0244844790
          12, 0.8088788433, 0.0955991966, 0.0000066364, 1944.7138431503, 0.9086358560, 6.9162127533, 4.6130588894, 6.9162127533, 4.6130588894, 650.8441841484, 1343.2275656103, 0.0943878417, 0.2175277626, 0.0000000000, 0.0000000000, -1.52712519e+00, 5.65246482e-01, -2.43269309e-01, 4.58061743e+00, 0.00000000e+00, -9.2690254452, 2.0000000000, 1.0000000000, 0.0263393051
          13, 0.8090744967, 0.0933743949, 0.0000064503, 1944.0150380519, 0.9087312537, 6.6746026225, 4.6167418849, 6.6746026225, 4.6167418849, 651.4714764622, 1341.9170805728, 0.0944232768, 0.2172619445, 0.0000000000, 0.0000000000, -1.52705806e+00, 5.63537778e-01, -2.43959535e-01, 4.58067189e+00, 0.00000000e+00, -9.2752427967, 2.0000000000, 1.0000000000, 0.0281983338
          14, 0.8092648635, 0.0920911657, 0.0000063101, 1934.8872556021, 0.9091783950, 6.4389466679, 4.6304644762, 6.4389466679, 4.6304644762, 652.0766689996, 1338.3771548457, 0.0944582385, 0.2165334691, 0.0000000000, 0.0000000000, -1.52733560e+00, 5.61477950e-01, -2.44288280e-01, 4.58038280e+00, 0.00000000e+00, -9.2814579661, 2.0000000000, 1.0000000000, 0.0300592269
          15, 0.8094287297, 0.0914533271, 0.0000062008, 1919.4677698519, 0.9098897146, 6.2084237396, 4.6515940844, 6.2084237396, 4.6515940844, 652.6173005574, 1333.2279412263, 0.0944870648, 0.2154723788, 0.0000000000, 0.0000000000, -1.52828571e+00, 5.58965415e-01, -2.44441454e-01, 4.57942260e+00, 0.00000000e+00, -9.2875667867, 2.0000000000, 1.0000000000, 0.0319154935
          16, 0.8095503111, 0.0911621187, 0.0000061057, 1899.6601820644, 0.9107883843, 5.9837991112, 4.6778862463, 5.9837991112, 4.6778862463, 653.0701156846, 1326.9982188241, 0.0945069051, 0.2141898045, 0.0000000000, 0.0000000000, -1.52999654e+00, 5.55986007e-01, -2.44631510e-01, 4.57770301e+00, 0.00000000e+00, -9.2934855847, 2.0000000000, 1.0000000000, 0.0337734030
          17, 0.8096265415, 0.0909014441, 0.0000060066, 1877.2383328173, 0.9118037020, 5.7651095729, 4.7072416155, 5.7651095729, 4.7072416155, 653.4372879656, 1320.1342673164, 0.0945180820, 0.2127797700, 0.0000000000, 0.0000000000, -1.53243181e+00, 5.52567141e-01, -2.43820522e-01, 4.57526021e+00, 0.00000000e+00, -9.2991853549, 2.0000000000, 1.0000000000, 0.0356318753
          18, 0.8096532026, 0.0903102405, 0.0000058825, 1853.7896329565, 0.9128738744, 5.5520145929, 4.7368186014, 5.5520145929, 4.7368186014, 653.7156867738, 1313.0441910883, 0.0945198200, 0.2113258599, 0.0000000000, 0.0000000000, -1.53547676e+00, 5.48722570e-01, -2.42011120e-01, 4.57220903e+00, 0.00000000e+00, -9.3046908131, 2.0000000000, 1.0000000000, 0.0374908271
          19, 0.8095585296, 0.0887671755, 0.0000056957, 1830.3977088416, 0.9139646854, 5.3442944330, 4.7640537792, 5.3442944330, 4.7640537792, 653.9071932971, 1306.2418900626, 0.0945121176, 0.2099219441, 0.0000000000, 0.0000000000, -1.53889731e+00, 5.44271613e-01, -2.39438568e-01, 4.56878366e+00, 0.00000000e+00, -9.3100262733, 2.0000000000, 1.0000000000, 0.0393496559
          20, 0.8093435859, 0.0863636824, 0.0000054589, 1807.9922788474, 0.9150309992, 5.1416695167, 4.7874029052, 5.1416695167, 4.7874029052, 654.0231633829, 1300.0157790568, 0.0944964337, 0.2086261971, 0.0000000000, 0.0000000000, -1.54279422e+00, 5.39822982e-01, -2.36424226e-01, 4.56488370e+00, 0.00000000e+00, -9.3151828744, 2.0000000000, 1.0000000000, 0.0412075733
          21, 0.8091243788, 0.0839040908, 0.0000052297, 1787.6294017746, 0.9160060609, 4.9438664929, 4.8099036773, 4.9438664929, 4.8099036773, 654.0766601384, 1294.3369226041, 0.0944744545, 0.2074494488, 0.0000000000, 0.0000000000, -1.54752933e+00, 5.35708245e-01, -2.34289261e-01, 4.56014718e+00, 0.00000000e+00, -9.3200750579, 2.0000000000, 1.0000000000, 0.0430655353
          22, 0.8089521488, 0.0813750014, 0.0000050068, 1769.9250113501, 0.9168629309, 4.7505616354, 4.8313523277, 4.7505616354, 4.8313523277, 654.0809665566, 1289.1995856401, 0.0944478236, 0.2063955567, 0.0000000000, 0.0000000000, -1.55282375e+00, 5.31528367e-01, -2.34912423e-01, 4.55485253e+00, 0.00000000e+00, -9.3246730511, 2.0000000000, 1.0000000000, 0.0449236335
          23, 0.8088340056, 0.0788257183, 0.0000047928, 1754.8316637431, 0.9176024741, 4.5615377903, 4.8526292423, 4.5615377903, 4.8526292423, 654.0481885253, 1284.5907431527, 0.0944180290, 0.2054610249, 0.0000000000, 0.0000000000, -1.55818062e+00, 5.26987755e-01, -2.36008878e-01, 4.54949755e+00, 0.00000000e+00, -9.3289981182, 2.0000000000, 1.0000000000, 0.0467812998
          24, 0.8087203341, 0.0764703527, 0.0000046017, 1741.8786799479, 0.9182402603, 4.3766251056, 4.8727313935, 4.3766251056, 4.8727313935, 653.9917956219, 1280.6248028517, 0.0943867591, 0.2046597699, 0.0000000000, 0.0000000000, -1.56326911e+00, 5.22330816e-01, -2.36405199e-01, 4.54441268e+00, 0.00000000e+00, -9.3330644218, 2.0000000000, 1.0000000000, 0.0486396399
          25, 0.8085666962, 0.0741580791, 0.0000044227, 1730.7800323381, 0.9187924057, 4.1958545344, 4.8880060647, 4.1958545344, 4.8880060647, 653.9219296938, 1277.3892412788, 0.0943552779, 0.2040004241, 0.0000000000, 0.0000000000, -1.56835384e+00, 5.17712081e-01, -2.37611973e-01, 4.53933146e+00, 0.00000000e+00, -9.3368439691, 2.0000000000, 1.0000000000, 0.0504980648
          26, 0.8084195528, 0.0717325525, 0.0000042447, 1721.8753830304, 0.9192477897, 4.0192260808, 4.8987763059, 4.0192260808, 4.8987763059, 653.8472061632, 1274.7849732973, 0.0943246446, 0.2034682304, 0.0000000000, 0.0000000000, -1.57310495e+00, 5.13496061e-01, -2.38868881e-01, 4.53458345e+00, 0.00000000e+00, -9.3402762813, 2.0000000000, 1.0000000000, 0.0523590664
          27, 0.8083349368, 0.0693400546, 0.0000040754, 1715.3463328087, 0.9195954453, 3.8466081475, 4.9068411243, 3.8466081475, 4.9068411243, 653.7740410807, 1272.6727285395, 0.0942955798, 0.2030423165, 0.0000000000, 0.0000000000, -1.57743555e+00, 5.09200646e-01, -2.41098035e-01, 4.53025654e+00, 0.00000000e+00, -9.3434119135, 2.0000000000, 1.0000000000, 0.0542186841
          28, 0.8083199549, 0.0670005021, 0.0000039151, 1711.0194731145, 0.9198428639, 3.6778942329, 4.9128410739, 3.6778942329, 4.9128410739, 653.7067031988, 1270.9802782281, 0.0942685723, 0.2027086817, 0.0000000000, 0.0000000000, -1.58154024e+00, 5.04957469e-01, -2.44210702e-01, 4.52615630e+00, 0.00000000e+00, -9.3463343834, 2.0000000000, 1.0000000000, 0.0560791299
          29, 0.8083676935, 0.0647658296, 0.0000037661, 1708.6154178181, 0.9200014832, 3.5129801302, 4.9170060086, 3.5129801302, 4.9170060086, 653.6480497862, 1269.6608497108, 0.0942439334, 0.2024567043, 0.0000000000, 0.0000000000, -1.58536634e+00, 5.00727048e-01, -2.45557180e-01, 4.52233438e+00, 0.00000000e+00, -9.3491321404, 2.0000000000, 1.0000000000, 0.0579374085
          30, 0.8084591407, 0.0626016027, 0.0000036255, 1707.8035378838, 0.9200868958, 3.3517966407, 4.9195250700, 3.3517966407, 4.9195250700, 653.5978904978, 1268.6838174026, 0.0942215442, 0.2022775923, 0.0000000000, 0.0000000000, -1.58870920e+00, 4.96554670e-01, -2.45558110e-01, 4.51899420e+00, 0.00000000e+00, -9.3518685008, 2.0000000000, 1.0000000000, 0.0597982021
          31, 0.8085622640, 0.0605509574, 0.0000034952, 1708.1531863406, 0.9201173488, 3.1942399663, 4.9205342628, 3.1942399663, 4.9205342628, 653.5558964898, 1268.0495335475, 0.0942012846, 0.2021671978, 0.0000000000, 0.0000000000, -1.59215697e+00, 4.92481247e-01, -2.45199182e-01, 4.51554821e+00, 0.00000000e+00, -9.3546102957, 2.0000000000, 1.0000000000, 0.0616569529
          32, 0.8086604434, 0.0586316232, 0.0000033759, 1709.3517111391, 0.9201064878, 3.0402446901, 4.9206939907, 3.0402446901, 4.9206939907, 653.5217451933, 1267.7271044028, 0.0941830667, 0.2021174893, 0.0000000000, 0.0000000000, -1.59578941e+00, 4.88641628e-01, -2.43624097e-01, 4.51191701e+00, 0.00000000e+00, -9.3574126253, 2.0000000000, 1.0000000000, 0.0635399781
          33, 0.8087453062, 0.0568738742, 0.0000032687, 1711.1858368202, 0.9200632754, 2.8897507239, 4.9200568071, 2.8897507239, 4.9200568071, 653.4953588774, 1267.6865767261, 0.0941668380, 0.2021214868, 0.0000000000, 0.0000000000, -1.59915818e+00, 4.85044035e-01, -2.41738551e-01, 4.50854845e+00, 0.00000000e+00, -9.3602863251, 2.0000000000, 1.0000000000, 0.0654102437
          34, 0.8088085145, 0.0552543982, 0.0000031717, 1713.4306563535, 0.9199983468, 2.7427172950, 4.9185410388, 2.7427172950, 4.9185410388, 653.4758803942, 1267.8864430661, 0.0941524382, 0.2021698832, 0.0000000000, 0.0000000000, -1.60244555e+00, 4.81706416e-01, -2.38886214e-01, 4.50526003e+00, 0.00000000e+00, -9.3632190608, 2.0000000000, 1.0000000000, 0.0672687543
          35, 0.8088365080, 0.0537273673, 0.0000030817, 1715.8586404044, 0.9199228719, 2.5991073515, 4.9166529602, 2.5991073515, 4.9166529602, 653.4623106915, 1268.3013049282, 0.0941396890, 0.2022561218, 0.0000000000, 0.0000000000, -1.60560301e+00, 4.78732602e-01, -2.36072406e-01, 4.50210114e+00, 0.00000000e+00, -9.3661974660, 2.0000000000, 1.0000000000, 0.0691288898
          36, 0.8088320343, 0.0522663931, 0.0000029967, 1718.3859177004, 0.9198412510, 2.4588849867, 4.9149478659, 2.4588849867, 4.9149478659, 653.4535898754, 1268.8883357571, 0.0941284052, 0.2023723026, 0.0000000000, 0.0000000000, -1.60875051e+00, 4.76129385e-01, -2.34108159e-01, 4.49895269e+00, 0.00000000e+00, -9.3691817928, 2.0000000000, 1.0000000000, 0.0709892575
          37, 0.8088046890, 0.0508592689, 0.0000029157, 1720.9789309171, 0.9197553523, 2.3220171317, 4.9135410538, 2.3220171317, 4.9135410538, 653.4486219709, 1269.5959805887, 0.0941184007, 0.2025095128, 0.0000000000, 0.0000000000, -1.61187161e+00, 4.73499408e-01, -2.33041215e-01, 4.49583069e+00, 0.00000000e+00, -9.3721447743, 2.0000000000, 1.0000000000, 0.0728507315
          38, 0.8087530478, 0.0494392905, 0.0000028343, 1723.5490842420, 0.9196705925, 2.1884612997, 4.9119103253, 2.1884612997, 4.9119103253, 653.4463326488, 1270.3930641149, 0.0941094914, 0.2026612079, 0.0000000000, 0.0000000000, -1.61503192e+00, 4.70789274e-01, -2.32707581e-01, 4.49267013e+00, 0.00000000e+00, -9.3750686404, 2.0000000000, 1.0000000000, 0.0747137991
          39, 0.8086896095, 0.0480222494, 0.0000027532, 1726.0671997014, 0.9195880283, 2.0581659812, 4.9099941967, 2.0581659812, 4.9099941967, 653.4459306564, 1271.2225937814, 0.0941015307, 0.2028176712, 0.0000000000, 0.0000000000, -1.61808880e+00, 4.67905322e-01, -2.32539424e-01, 4.48961348e+00, 0.00000000e+00, -9.3779582165, 2.0000000000, 1.0000000000, 0.0765801039
          40, 0.8086233272, 0.0466344496, 0.0000026738, 1728.5011642736, 0.9195085901, 1.9310791899, 4.9078451591, 1.9310791899, 4.9078451591, 653.4466793169, 1272.0422984917, 0.0940943807, 0.2029716927, 0.0000000000, 0.0000000000, -1.62101852e+00, 4.65136881e-01, -2.32321982e-01, 4.48668415e+00, 0.00000000e+00, -9.3807891849, 2.0000000000, 1.0000000000, 0.0784417727
          41, 0.8085530247, 0.0452567626, 0.0000025948, 1730.8029756378, 0.9194348250, 1.8071491498, 4.9057203008, 1.8071491498, 4.9057203008, 653.4479117612, 1272.8386177795, 0.0940879138, 0.2031205275, 0.0000000000, 0.0000000000, -1.62387683e+00, 4.62519310e-01, -2.31833889e-01, 4.48382686e+00, 0.00000000e+00, -9.3835270587, 2.0000000000, 1.0000000000, 0.0803121189
          42, 0.8084755571, 0.0438819588, 0.0000025159, 1732.9255381399, 0.9193689674, 1.6863226335, 4.9036097662, 1.6863226335, 4.9036097662, 653.4490456427, 1273.6085740967, 0.0940820142, 0.2032631713, 0.0000000000, 0.0000000000, -1.62668375e+00, 4.59954627e-01, -2.31815663e-01, 4.48102074e+00, 0.00000000e+00, -9.3861457775, 2.0000000000, 1.0000000000, 0.0821756856
          43, 0.8084089041, 0.0425295343, 0.0000024380, 1734.9377691553, 0.9193076202, 1.5685360568, 4.9014605831, 1.5685360568, 4.9014605831, 653.4495157862, 1274.3042099155, 0.0940765706, 0.2033924062, 0.0000000000, 0.0000000000, -1.62941377e+00, 4.57296323e-01, -2.32280162e-01, 4.47829223e+00, 0.00000000e+00, -9.3886468628, 2.0000000000, 1.0000000000, 0.0840405159
          44, 0.8083666292, 0.0412366786, 0.0000023633, 1736.8870144871, 0.9192479439, 1.4537334322, 4.8996093887, 1.4537334322, 4.8996093887, 653.4489107660, 1274.8905000698, 0.0940714918, 0.2035031542, 0.0000000000, 0.0000000000, -1.63190235e+00, 4.54592466e-01, -2.32770392e-01, 4.47580590e+00, 0.00000000e+00, -9.3910491257, 2.0000000000, 1.0000000000, 0.0859065130
          45, 0.8083502669, 0.0400300392, 0.0000022933, 1738.7500013770, 0.9191904098, 1.3418677262, 4.8980915021, 1.3418677262, 4.8980915021, 653.4469630832, 1275.3578846767, 0.0940667102, 0.2035937253, 0.0000000000, 0.0000000000, -1.63412232e+00, 4.51919392e-01, -2.33823171e-01, 4.47358829e+00, 0.00000000e+00, -9.3933741023, 2.0000000000, 1.0000000000, 0.0877731901
          46, 0.8083558286, 0.0388945494, 0.0000022272, 1740.4950809288, 0.9191367214, 1.2328941030, 4.8967774528, 1.2328941030, 4.8967774528, 653.4436706513, 1275.7105852906, 0.0940621997, 0.2036643922, 0.0000000000, 0.0000000000, -1.63635378e+00, 4.49413088e-01, -2.35456844e-01, 4.47135865e+00, 0.00000000e+00, -9.3956332088, 2.0000000000, 1.0000000000, 0.0896391995
          47, 0.8083835440, 0.0378470360, 0.0000021659, 1742.0939753754, 0.9190877773, 1.1267739511, 4.8955439946, 1.1267739511, 4.8955439946, 653.4391746341, 1275.9416225131, 0.0940579543, 0.2037137457, 0.0000000000, 0.0000000000, -1.63862302e+00, 4.47134586e-01, -2.36888562e-01, 4.46909066e+00, 0.00000000e+00, -9.3978001002, 2.0000000000, 1.0000000000, 0.0915056874
          48, 0.8084353619, 0.0369069030, 0.0000021106, 1743.5520890246, 0.9190429313, 1.0234750661, 4.8943506257, 1.0234750661, 4.8943506257, 653.4336973875, 1276.0476986822, 0.0940539826, 0.2037413744, 0.0000000000, 0.0000000000, -1.64088726e+00, 4.44957585e-01, -2.38024040e-01, 4.46682783e+00, 0.00000000e+00, -9.3998727727, 2.0000000000, 1.0000000000, 0.0933738670
          49, 0.8085068187, 0.0360547671, 0.0000020602, 1744.8540993731, 0.9190032517, 0.9229481280, 4.8932289996, 0.9229481280, 4.8932289996, 653.4274548969, 1276.0391677695, 0.0940502876, 0.2037487592, 0.0000000000, 0.0000000000, -1.64299637e+00, 4.42948758e-01, -2.39166962e-01, 4.46471990e+00, 0.00000000e+00, -9.4018518788, 2.0000000000, 1.0000000000, 0.0952416075
          50, 0.8085895340, 0.0352732331, 0.0000020137, 1745.9667205219, 0.9189705455, 0.8251528215, 4.8922844236, 0.8251528215, 4.8922844236, 653.4206383340, 1275.9368116590, 0.0940468692, 0.2037389728, 0.0000000000, 0.0000000000, -1.64497982e+00, 4.40964390e-01, -2.40796690e-01, 4.46273724e+00, 0.00000000e+00, -9.4037450223, 2.0000000000, 1.0000000000, 0.0971084814
          51, 0.8086757177, 0.0345444602, 0.0000019701, 1746.8695052182, 0.9189460606, 0.7300476925, 4.8916418863, 0.7300476925, 4.8916418863, 653.4135271609, 1275.7629270621, 0.0940437430, 0.2037154803, 0.0000000000, 0.0000000000, -1.64690531e+00, 4.38930420e-01, -2.42472314e-01, 4.46081232e+00, 0.00000000e+00, -9.4055707023, 2.0000000000, 1.0000000000, 0.0989732317
          52, 0.8087579413, 0.0338612026, 0.0000019292, 1747.5424574143, 0.9189308043, 0.6375908189, 4.8913679823, 0.6375908189, 4.8913679823, 653.4064157684, 1275.5401598191, 0.0940409286, 0.2036818454, 0.0000000000, 0.0000000000, -1.64878579e+00, 4.36879693e-01, -2.43649352e-01, 4.45893260e+00, 0.00000000e+00, -9.4073571566, 2.0000000000, 1.0000000000, 0.1008384539
          53, 0.8088354498, 0.0332280867, 0.0000018911, 1748.0113229461, 0.9189235312, 0.5477442722, 4.8913432407, 0.5477442722, 4.8913432407, 653.3995421072, 1275.2804572986, 0.0940384377, 0.2036403055, 0.0000000000, 0.0000000000, -1.65066467e+00, 4.34836928e-01, -2.44359717e-01, 4.45705458e+00, 0.00000000e+00, -9.4091249365, 2.0000000000, 1.0000000000, 0.1027060469
          54, 0.8089074970, 0.0326470234, 0.0000018560, 1748.2966421186, 0.9189232864, 0.4604710878, 4.8913728911, 0.4604710878, 4.8913728911, 653.3931152845, 1274.9938456295, 0.0940362780, 0.2035926866, 0.0000000000, 0.0000000000, -1.65258984e+00, 4.32908820e-01, -2.44934140e-01, 4.45512980e+00, 0.00000000e+00, -9.4108695448, 2.0000000000, 1.0000000000, 0.1045721531
          55, 0.8089716624, 0.0321243096, 0.0000018244, 1748.4179938042, 0.9189290607, 0.3757343309, 4.8913371552, 0.3757343309, 4.8913371552, 653.3873067482, 1274.6972591811, 0.0940344525, 0.2035420010, 0.0000000000, 0.0000000000, -1.65439513e+00, 4.31048175e-01, -2.45456164e-01, 4.45332489e+00, 0.00000000e+00, -9.4125921781, 2.0000000000, 1.0000000000, 0.1064436359
          56, 0.8090265689, 0.0316279546, 0.0000017944, 1748.4186526530, 0.9189395939, 0.2934975924, 4.8911818293, 0.2934975924, 4.8911818293, 653.3822099155, 1274.4050728662, 0.0940329530, 0.2034909098, 0.0000000000, 0.0000000000, -1.65615220e+00, 4.29252664e-01, -2.45989887e-01, 4.45156785e+00, 0.00000000e+00, -9.4142971264, 2.0000000000, 1.0000000000, 0.1083112022
          57, 0.8090734496, 0.0311569595, 0.0000017660, 1748.3251799615, 0.9189537332, 0.2137251129, 4.8908903541, 0.2137251129, 4.8908903541, 653.3778461444, 1274.1203744533, 0.0940317640, 0.2034401859, 0.0000000000, 0.0000000000, -1.65793360e+00, 4.27489181e-01, -2.46539514e-01, 4.44978626e+00, 0.00000000e+00, -9.4159785939, 2.0000000000, 1.0000000000, 0.1101780062
          58, 0.8091148817, 0.0307061696, 0.0000017387, 1748.1849903977, 0.9189694899, 0.1363794855, 4.8905619389, 0.1363794855, 4.8905619389, 653.3742291536, 1273.8464307809, 0.0940308697, 0.2033908595, 0.0000000000, 0.0000000000, -1.65964496e+00, 4.25633674e-01, -2.47572183e-01, 4.44807500e+00, 0.00000000e+00, -9.4176476855, 2.0000000000, 1.0000000000, 0.1120450157
          59, 0.8091500821, 0.0302714867, 0.0000017126, 1748.0107350538, 0.9189863856, 0.0614233353, 4.8900213689, 0.0614233353, 4.8900213689, 653.3712961616, 1273.5900017092, 0.0940302449, 0.2033441118, 0.0000000000, 0.0000000000, -1.66135361e+00, 4.23811612e-01, -2.49734345e-01, 4.44636638e+00, 0.00000000e+00, -9.4193173148, 2.0000000000, 1.0000000000, 0.1139108220
          60, 0.8091807555, 0.0298673360, 0.0000016883, 1747.8187654193, 0.9190034038, -0.0111816091, 4.8892971069, -0.0111816091, 4.8892971069, 653.3689552595, 1273.3512328168, 0.0940298614, 0.2033002106, 0.0000000000, 0.0000000000, -1.66315277e+00, 4.22171566e-01, -2.52005362e-01, 4.44456702e+00, 0.00000000e+00, -9.4209739811, 2.0000000000, 1.0000000000, 0.1157760821
          61, 0.8092089485, 0.0295065941, 0.0000016666, 1747.6323274793, 0.9190192561, -0.0814762141, 4.8882900812, -0.0814762141, 4.8882900812, 653.3670994643, 1273.1310289849, 0.0940296896, 0.2032595715, 0.0000000000, 0.0000000000, -1.66492988e+00, 4.20463850e-01, -2.54360522e-01, 4.44278981e+00, 0.00000000e+00, -9.4226179678, 2.0000000000, 1.0000000000, 0.1176407495
          62, 0.8092330575, 0.0291716110, 0.0000016465, 1747.4521597039, 0.9190342715, -0.1495015547, 4.8870408259, -0.1495015547, 4.8870408259, 653.3656156732, 1272.9334354395, 0.0940296999, 0.2032228068, 0.0000000000, 0.0000000000, -1.66668542e+00, 4.18592204e-01, -2.57154520e-01, 4.44103429e+00, 0.00000000e+00, -9.4242715548, 2.0000000000, 1.0000000000, 0.1195051144
          63, 0.8092527149, 0.0288635405, 0.0000016281, 1747.2868128202, 0.9190480471, -0.2152997704, 4.8855909705, -0.2152997704, 4.8855909705, 653.3643584787, 1272.7625995466, 0.0940298600, 0.2031907163, 0.0000000000, 0.0000000000, -1.66834142e+00, 4.16741124e-01, -2.59542434e-01, 4.43937813e+00, 0.00000000e+00, -9.4259573425, 2.0000000000, 1.0000000000, 0.1213710952
          64, 0.8092670810, 0.0285811575, 0.0000016113, 1747.1362554585, 0.9190606090, -0.2789099933, 4.8839353705, -0.2789099933, 4.8839353705, 653.3633413789, 1272.6217102314, 0.0940301589, 0.2031638219, 0.0000000000, 0.0000000000, -1.67008655e+00, 4.14956433e-01, -2.61027138e-01, 4.43763309e+00, 0.00000000e+00, -9.4276866215, 2.0000000000, 1.0000000000, 0.1232385902
          65, 0.8092748801, 0.0283205284, 0.0000015958, 1746.9959379707, 0.9190722376, -0.3403717178, 4.8820306419, -0.3403717178, 4.8820306419, 653.3625684273, 1272.5140065593, 0.0940305854, 0.2031425841, 0.0000000000, 0.0000000000, -1.67190049e+00, 4.13287284e-01, -2.62051699e-01, 4.43581944e+00, 0.00000000e+00, -9.4294499794, 2.0000000000, 1.0000000000, 0.1251018212
          66, 0.8092759674, 0.0280814246, 0.0000015817, 1746.8654988832, 0.9190829551, -0.3997207087, 4.8798748239, -0.3997207087, 4.8798748239, 653.3619334944, 1272.4398994366, 0.0940311141, 0.2031270678, 0.0000000000, 0.0000000000, -1.67379567e+00, 4.11645771e-01, -2.62862924e-01, 4.43392421e+00, 0.00000000e+00, -9.4312259485, 2.0000000000, 1.0000000000, 0.1269674057
          67, 0.8092703420, 0.0278663397, 0.0000015691, 1746.7433954757, 0.9190927804, -0.4569886952, 4.8775063780, -0.4569886952, 4.8775063780, 653.3613749739, 1272.3991738533, 0.0940317264, 0.2031172464, 0.0000000000, 0.0000000000, -1.67578626e+00, 4.09916295e-01, -2.63606035e-01, 4.43193353e+00, 0.00000000e+00, -9.4330116136, 2.0000000000, 1.0000000000, 0.1288314995
          68, 0.8092578752, 0.0276725943, 0.0000015578, 1746.6271925955, 0.9191018780, -0.5122096429, 4.8749987921, -0.5122096429, 4.8749987921, 653.3608044437, 1272.3910610180, 0.0940324002, 0.2031129782, 0.0000000000, 0.0000000000, -1.67769051e+00, 4.08047729e-01, -2.64271592e-01, 4.43002943e+00, 0.00000000e+00, -9.4348204964, 2.0000000000, 1.0000000000, 0.1306949010
          69, 0.8092386064, 0.0274938354, 0.0000015475, 1746.5156498353, 0.9191104345, -0.5654193155, 4.8724203194, -0.5654193155, 4.8724203194, 653.3601303966, 1272.4139666317, 0.0940331138, 0.2031139780, 0.0000000000, 0.0000000000, -1.67957297e+00, 4.06134124e-01, -2.64251352e-01, 4.42814755e+00, 0.00000000e+00, -9.4366727927, 2.0000000000, 1.0000000000, 0.1325574413
          70, 0.8092129593, 0.0273424123, 0.0000015388, 1746.4041132291, 0.9191184059, -0.6166561539, 4.8698228076, -0.6166561539, 4.8698228076, 653.3593134850, 1272.4663955934, 0.0940338534, 0.2031200246, 0.0000000000, 0.0000000000, -1.68146102e+00, 4.04232564e-01, -2.63680601e-01, 4.42625997e+00, 0.00000000e+00, -9.4385548694, 2.0000000000, 1.0000000000, 0.1344225284
          71, 0.8091813642, 0.0272079403, 0.0000015312, 1746.2959499257, 0.9191258580, -0.6659604899, 4.8672339980, -0.6659604899, 4.8672339980, 653.3583841793, 1272.5461216502, 0.0940346154, 0.2031307402, 0.0000000000, 0.0000000000, -1.68330903e+00, 4.02280772e-01, -2.62895383e-01, 4.42441214e+00, 0.00000000e+00, -9.4404628068, 2.0000000000, 1.0000000000, 0.1362868665
          72, 0.8091445544, 0.0270914452, 0.0000015247, 1746.1923083714, 0.9191327218, -0.7133668144, 4.8646458205, -0.7133668144, 4.8646458205, 653.3574085828, 1272.6507095626, 0.0940354017, 0.2031457321, 0.0000000000, 0.0000000000, -1.68517165e+00, 4.00302946e-01, -2.62211741e-01, 4.42254972e+00, 0.00000000e+00, -9.4423915876, 2.0000000000, 1.0000000000, 0.1381516257
          73, 0.8091044090, 0.0269913999, 0.0000015192, 1746.1007505846, 0.9191386998, -0.7589085154, 4.8620628136, -0.7589085154, 4.8620628136, 653.3564743135, 1272.7746929549, 0.0940362191, 0.2031641619, 0.0000000000, 0.0000000000, -1.68694295e+00, 3.98310230e-01, -2.61605399e-01, 4.42077864e+00, 0.00000000e+00, -9.4443406067, 2.0000000000, 1.0000000000, 0.1400217736
          74, 0.8090625217, 0.0269062449, 0.0000015146, 1746.0256246668, 0.9191436364, -0.8026175544, 4.8594835244, -0.8026175544, 4.8594835244, 653.3556626633, 1272.9127683165, 0.0940370744, 0.2031851851, 0.0000000000, 0.0000000000, -1.68874897e+00, 3.96385674e-01, -2.61012193e-01, 4.41897273e+00, 0.00000000e+00, -9.4463048644, 2.0000000000, 1.0000000000, 0.1418879630
          75, 0.8090209347, 0.0268385609, 0.0000015110, 1745.9707370903, 0.9191473168, -0.8445282782, 4.8568716138, -0.8445282782, 4.8568716138, 653.3550829025, 1273.0583453964, 0.0940379772, 0.2032077417, 0.0000000000, 0.0000000000, -1.69061973e+00, 3.94451737e-01, -2.60325547e-01, 4.41710212e+00, 0.00000000e+00, -9.4482887258, 2.0000000000, 1.0000000000, 0.1437531592
          76, 0.8089810701, 0.0267885977, 0.0000015084, 1745.9382622684, 0.9191496443, -0.8846753551, 4.8542247848, -0.8846753551, 4.8542247848, 653.3548304851, 1273.2064196551, 0.0940389365, 0.2032310212, 0.0000000000, 0.0000000000, -1.69247426e+00, 3.92534053e-01, -2.59530285e-01, 4.41524764e+00, 0.00000000e+00, -9.4502970195, 2.0000000000, 1.0000000000, 0.1456162363
          77, 0.8089441140, 0.0267560106, 0.0000015069, 1745.9297015329, 0.9191505633, -0.9230918534, 4.8515992610, -0.9230918534, 4.8515992610, 653.3550748438, 1273.3525731447, 0.0940399693, 0.2032543131, 0.0000000000, 0.0000000000, -1.69429075e+00, 3.90674990e-01, -2.58762264e-01, 4.41343141e+00, 0.00000000e+00, -9.4523042798, 2.0000000000, 1.0000000000, 0.1474808761
          78, 0.8089109754, 0.0267394033, 0.0000015063, 1745.9431528859, 0.9191501899, -0.9598126562, 4.8490440015, -0.9598126562, 4.8490440015, 653.3559204583, 1273.4922940973, 0.0940410854, 0.2032768535, 0.0000000000, 0.0000000000, -1.69609431e+00, 3.88796703e-01, -2.58054196e-01, 4.41162837e+00, 0.00000000e+00, -9.4543017868, 2.0000000000, 1.0000000000, 0.1493470299